
  ___ ___ ___ _ _ _  
 |   |   |_  | | | | 
 | | | | | . | | | | 
 |__ |  _|___|_____|  0.9.1.9737
 |___|_|             

User:  hjelmare@beda63-2.nfs.private
Date:  Thu Feb 19 11:33:03 2015
Arch:  x86_64
Pid:   24811
Dir:   /beda/sw/apps/GPAW/r9737-py26-i111-mkl102/lib/python2.6/site-packages/gpaw
ase:   /beda/sw/apps/ase/r2828/lib/python2.6/site-packages/ase (version 3.6.1.2828)
numpy: /beda/sw/apps/numpy/py26/1.5.1rc2/mkl10.2/lib/python2.6/site-packages/numpy (version 1.5.1rc2)
units: Angstrom and eV
cores: 1

Memory estimate
---------------
Process memory now: 85.56 MiB
Calculator  19.39 MiB
    Density  7.63 MiB
        Arrays  3.10 MiB
        Localized functions  3.82 MiB
        Mixer  0.72 MiB
    Hamiltonian  2.12 MiB
        Arrays  2.03 MiB
        XC  0.00 MiB
        Poisson  0.00 MiB
        vbar  0.09 MiB
    Wavefunctions  9.63 MiB
        Arrays psit_nG  5.43 MiB
        Eigensolver  0.75 MiB
        Projectors  2.14 MiB
        Overlap op  0.55 MiB
        PW-descriptor  0.76 MiB

Positions:
  0 Mg    0.0000    0.0000    0.0000
  1 Al    2.5000    2.5000    0.0000
  2 Al    2.5000    0.0000    2.5000
  3 Al    0.0000    2.5000    2.5000

    .-----------.  
   /|           |  
  / |           |  
 *  |           |  
 |  |           |  
 | Al           |  
 |  .--Al-------.  
 | /     Al    /   
 |/           /    
 Mg----------*     

Unit Cell:
           Periodic     X           Y           Z      Points  Spacing
  --------------------------------------------------------------------
  1. axis:    yes    5.000000    0.000000    0.000000    25     0.2000
  2. axis:    yes    0.000000    5.000000    0.000000    25     0.2000
  3. axis:    yes    0.000000    0.000000    5.000000    25     0.2000

Mg-setup:
  name   : Magnesium
  id     : b56b6cab5149d5bf22ad04c2f71a3023
  Z      : 12
  valence: 10
  core   : 2
  charge : 0.0
  file   : /beda/sw/apps/GPAW/r9737-py26-i111-mkl102/gpaw-setups-0.9.9672/Mg.PBE.gz
  cutoffs: 1.03(comp), 1.86(filt), 0.54(core), lmax=2
  valence states:
            energy   radius
    2s(2)  -79.840   1.090
    3s(2)   -4.705   1.090
    2p(6)  -46.613   1.085
    3p(0)   -1.330   1.085
    *d       0.000   1.037

Using partial waves for Mg as LCAO basis

Al-setup:
  name   : Aluminium
  id     : 0292cae29f5d6237e50f6abdd43a7bdd
  Z      : 13
  valence: 3
  core   : 10
  charge : 0.0
  file   : /beda/sw/apps/GPAW/r9737-py26-i111-mkl102/gpaw-setups-0.9.9672/Al.PBE.gz
  cutoffs: 1.08(comp), 1.91(filt), 2.36(core), lmax=2
  valence states:
            energy   radius
    3s(2)   -7.753   1.085
    3p(1)   -2.712   1.085
    *s      19.459   1.085
    *p      24.500   1.085
    *d       0.000   1.085

Using partial waves for Al as LCAO basis

Using the PBE Exchange-Correlation Functional.
Spin-Paired Calculation
Total Charge:      0.000000
Fermi Temperature: 0.100000
Wave functions: Plane wave expansion
      Cutoff energy: 300.000 eV
      Number of coefficients (min, max): 1457, 1484
      Using FFTW library
Eigensolver:       dav
XC and Coulomb potentials evaluated on a 50*50*50 grid
Interpolation: FFT
Poisson solver: FFT
Reference Energy:  -25259.923624

Total number of cores used: 1

Symmetries present: 48
216 k-points: 6 x 6 x 6 Monkhorst-Pack grid
10 k-points in the Irreducible Part of the Brillouin Zone
Linear Mixing Parameter:           0.1
Pulay Mixing with 3 Old Densities
Damping of Long Wave Oscillations: 50

Convergence Criteria:
Total Energy Change:           0.0005 eV / electron
Integral of Absolute Density Change:    0.0001 electrons
Integral of Absolute Eigenstate Change: 4e-08 eV^2
Number of Atoms: 4
Number of Atomic Orbitals: 20
Number of Bands in Calculation:         24
Bands to Converge:                      Occupied States Only
Number of Valence Electrons:            19
                     log10-error:    Total        Iterations:
           Time      WFS    Density  Energy       Fermi  Poisson
iter:   1  11:33:08  +1.5              -9.926991  3             
iter:   2  11:33:10  -2.7              -9.928945  2             
iter:   3  11:33:11  -3.7              -9.929027  1             
iter:   4  11:33:14  -3.8   -1.1       -9.893591  3             
iter:   5  11:33:17  -2.2   -1.2       -9.828254  3             
iter:   6  11:33:19  -3.7   -1.7       -9.807335  3             
iter:   7  11:33:22  -4.9   -2.4       -9.807132  2             
iter:   8  11:33:24  -6.5   -2.8       -9.807102  2             
iter:   9  11:33:27  -5.4   -2.8       -9.807062  2             
iter:  10  11:33:30  -6.8   -3.2       -9.807055  2             
iter:  11  11:33:32  -7.1   -3.4       -9.807078  1             
iter:  12  11:33:35  -8.6   -4.1       -9.807077  1             
------------------------------------
Converged After 12 Iterations.

Energy Contributions Relative to Reference Atoms:(reference = -25259.923624)
-------------------------
Kinetic:        -18.813564
Potential:      +16.081307
External:        +0.000000
XC:              -7.013182
Entropy (-ST):   -0.074952
Local:           -0.024162
-------------------------
Free Energy:     -9.844553
Zero Kelvin:     -9.807077

Fermi Level: 2.15729


Memory usage: 90.89 MB

============================================================
Timing:                               incl.     excl.
============================================================
Initialization:                       3.358     1.481   4.6% |-|
 Hamiltonian:                         0.637     0.057   0.2% |
  Atomic:                             0.417     0.000   0.0% |
   XC Correction:                     0.416     0.416   1.3% ||
  Communicate energies:               0.000     0.000   0.0% |
  Initialize Hamiltonian:             0.000     0.000   0.0% |
  Poisson:                            0.001     0.001   0.0% |
  XC 3D grid:                         0.162     0.162   0.5% |
 LCAO initialization:                 1.190     0.258   0.8% |
  LCAO eigensolver:                   0.200     0.000   0.0% |
   Atomic Hamiltonian:                0.002     0.002   0.0% |
   Calculate projections:             0.001     0.001   0.0% |
   Distribute overlap matrix:         0.000     0.000   0.0% |
   Orbital Layouts:                   0.002     0.002   0.0% |
   Potential matrix:                  0.179     0.179   0.6% |
   Sum over cells:                    0.015     0.015   0.0% |
  LCAO to grid:                       0.369     0.369   1.2% |
  Set positions (LCAO WFS):           0.363     0.000   0.0% |
   Basic WFS set positions:           0.008     0.008   0.0% |
   Basis functions set positions:     0.000     0.000   0.0% |
   TCI: Calculate S, T, P:            0.355     0.355   1.1% |
 PWDescriptor:                        0.051     0.051   0.2% |
SCF-cycle:                           28.666     0.044   0.1% |
 Davidson:                           15.044    15.044  46.9% |------------------|
 Density:                             3.490     0.000   0.0% |
  Atomic density matrices:            0.051     0.051   0.2% |
  Mix:                                0.534     0.534   1.7% ||
  Multipole moments:                  0.001     0.001   0.0% |
  Pseudo density:                     2.904     2.269   7.1% |--|
   Symmetrize density:                0.635     0.635   2.0% ||
 Hamiltonian:                         5.703     0.503   1.6% ||
  Atomic:                             3.744     0.004   0.0% |
   XC Correction:                     3.739     3.739  11.7% |----|
  Communicate energies:               0.000     0.000   0.0% |
  Poisson:                            0.009     0.009   0.0% |
  XC 3D grid:                         1.447     1.447   4.5% |-|
 Orthonormalize:                      0.899     0.005   0.0% |
  Band Layouts:                       0.006     0.001   0.0% |
   Inverse Cholesky:                  0.005     0.005   0.0% |
  calc_s_matrix:                      0.139     0.139   0.4% |
  projections:                        0.600     0.600   1.9% ||
  rotate_psi:                         0.150     0.150   0.5% |
 Subspace diag:                       3.486     0.009   0.0% |
  Band Layouts:                       0.031     0.002   0.0% |
   Diagonalize:                       0.027     0.027   0.1% |
   Distribute results:                0.002     0.002   0.0% |
  calc_h_matrix:                      3.173     3.173   9.9% |---|
  rotate_psi:                         0.273     0.273   0.9% |
Other:                                0.022     0.022   0.1% |
============================================================
Total:                                         32.046 100.0%
============================================================
date: Thu Feb 19 11:33:35 2015
