
  ___ ___ ___ _ _ _  
 |   |   |_  | | | | 
 | | | | | . | | | | 
 |__ |  _|___|_____|  0.9.1.9737
 |___|_|             

User:  hjelmare@beda30-3.nfs.private
Date:  Wed Feb 18 21:04:12 2015
Arch:  x86_64
Pid:   12437
Dir:   /beda/sw/apps/GPAW/r9737-py26-i111-mkl102/lib/python2.6/site-packages/gpaw
ase:   /beda/sw/apps/ase/r2828/lib/python2.6/site-packages/ase (version 3.6.1.2828)
numpy: /beda/sw/apps/numpy/py26/1.5.1rc2/mkl10.2/lib/python2.6/site-packages/numpy (version 1.5.1rc2)
units: Angstrom and eV
cores: 1

Memory estimate
---------------
Process memory now: 36.83 MiB
Calculator  9.27 MiB
    Density  3.51 MiB
        Arrays  1.59 MiB
        Localized functions  1.56 MiB
        Mixer  0.37 MiB
    Hamiltonian  1.07 MiB
        Arrays  1.04 MiB
        XC  0.00 MiB
        Poisson  0.00 MiB
        vbar  0.03 MiB
    Wavefunctions  4.69 MiB
        Arrays psit_nG  2.78 MiB
        Eigensolver  0.42 MiB
        Projectors  0.81 MiB
        Overlap op  0.29 MiB
        PW-descriptor  0.39 MiB

Positions:
  0 Al    0.0000    0.0000    0.0000
  1 Al    2.0000    2.0000    0.0000
  2 Al    2.0000    0.0000    2.0000
  3 Al    0.0000    2.0000    2.0000

   .---------.  
  /|         |  
 * |         |  
 |Al         |  
 | |         |  
 | .--Al-----.  
 |/    Al   /   
 Al--------*    

Unit Cell:
           Periodic     X           Y           Z      Points  Spacing
  --------------------------------------------------------------------
  1. axis:    yes    4.000000    0.000000    0.000000    20     0.2000
  2. axis:    yes    0.000000    4.000000    0.000000    20     0.2000
  3. axis:    yes    0.000000    0.000000    4.000000    20     0.2000

Al-setup:
  name   : Aluminium
  id     : 0292cae29f5d6237e50f6abdd43a7bdd
  Z      : 13
  valence: 3
  core   : 10
  charge : 0.0
  file   : /beda/sw/apps/GPAW/r9737-py26-i111-mkl102/gpaw-setups-0.9.9672/Al.PBE.gz
  cutoffs: 1.08(comp), 1.91(filt), 2.36(core), lmax=2
  valence states:
            energy   radius
    3s(2)   -7.753   1.085
    3p(1)   -2.712   1.085
    *s      19.459   1.085
    *p      24.500   1.085
    *d       0.000   1.085

Using partial waves for Al as LCAO basis

Using the PBE Exchange-Correlation Functional.
Spin-Paired Calculation
Total Charge:      0.000000
Fermi Temperature: 0.100000
Wave functions: Plane wave expansion
      Cutoff energy: 300.000 eV
      Number of coefficients (min, max): 744, 760
      Using FFTW library
Eigensolver:       dav
XC and Coulomb potentials evaluated on a 40*40*40 grid
Interpolation: FFT
Poisson solver: FFT
Reference Energy:  -26413.702408

Total number of cores used: 1

Symmetries present: 48
216 k-points: 6 x 6 x 6 Monkhorst-Pack grid
10 k-points in the Irreducible Part of the Brillouin Zone
Linear Mixing Parameter:           0.1
Pulay Mixing with 3 Old Densities
Damping of Long Wave Oscillations: 50

Convergence Criteria:
Total Energy Change:           0.0005 eV / electron
Integral of Absolute Density Change:    0.0001 electrons
Integral of Absolute Eigenstate Change: 4e-08 eV^2
Number of Atoms: 4
Number of Atomic Orbitals: 16
Number of Bands in Calculation:         24
Bands to Converge:                      Occupied States Only
Number of Valence Electrons:            12
                     log10-error:    Total        Iterations:
           Time      WFS    Density  Energy       Fermi  Poisson
iter:   1  21:04:16  +2.2             -14.885590  3             
iter:   2  21:04:17  -2.7             -14.888532  2             
iter:   3  21:04:18  -4.4             -14.888580  1             
iter:   4  21:04:19  -5.0   -0.9      -14.889547  2             
iter:   5  21:04:21  -3.1   -1.0      -14.900068  3             
iter:   6  21:04:22  -4.7   -2.5      -14.900133  1             
iter:   7  21:04:24  -5.5   -2.7      -14.900193  2             
iter:   8  21:04:25  -8.1   -3.4      -14.900193  1             
iter:   9  21:04:27  -8.7   -3.5      -14.900192  2             
iter:  10  21:04:28  -9.2   -3.7      -14.900192  2             
iter:  11  21:04:30  -9.0   -3.8      -14.900192  2             
iter:  12  21:04:31  -10.6  -3.9      -14.900192  1             
iter:  13  21:04:33  -8.4   -4.0      -14.900192  1             
iter:  14  21:04:34  -9.8   -4.3      -14.900192  1             
------------------------------------
Converged After 14 Iterations.

Energy Contributions Relative to Reference Atoms:(reference = -26413.702408)
-------------------------
Kinetic:        +19.108671
Potential:      -10.295356
External:        +0.000000
XC:             -23.649801
Entropy (-ST):   -0.055873
Local:           -0.035770
-------------------------
Free Energy:    -14.928129
Zero Kelvin:    -14.900192

Fermi Level: 7.36766



Forces in eV/Ang:
  0 Al   -0.00000   -0.00000   -0.00000
  1 Al   -0.00000   -0.00000    0.00000
  2 Al   -0.00000    0.00000   -0.00000
  3 Al    0.00000    0.00000   -0.00000
Stress tensor:
   -0.016846    -0.000000     0.000000
   -0.000000    -0.016846     0.000000
    0.000000     0.000000    -0.016846
Memory usage: 67.16 MB

============================================================
Timing:                               incl.     excl.
============================================================
Initialization:                       2.956     1.311   5.0% |-|
 Hamiltonian:                         0.529     0.030   0.1% |
  Atomic:                             0.416     0.000   0.0% |
   XC Correction:                     0.415     0.415   1.6% ||
  Communicate energies:               0.000     0.000   0.0% |
  Initialize Hamiltonian:             0.000     0.000   0.0% |
  Poisson:                            0.001     0.001   0.0% |
  XC 3D grid:                         0.083     0.083   0.3% |
 LCAO initialization:                 1.089     0.048   0.2% |
  LCAO eigensolver:                   0.275     0.001   0.0% |
   Atomic Hamiltonian:                0.001     0.001   0.0% |
   Calculate projections:             0.001     0.001   0.0% |
   Distribute overlap matrix:         0.000     0.000   0.0% |
   Orbital Layouts:                   0.002     0.002   0.0% |
   Potential matrix:                  0.232     0.232   0.9% |
   Sum over cells:                    0.037     0.037   0.1% |
  LCAO to grid:                       0.211     0.211   0.8% |
  Set positions (LCAO WFS):           0.555     0.000   0.0% |
   Basic WFS set positions:           0.008     0.008   0.0% |
   Basis functions set positions:     0.000     0.000   0.0% |
   TCI: Calculate S, T, P:            0.548     0.548   2.1% ||
 PWDescriptor:                        0.027     0.027   0.1% |
SCF-cycle:                           19.286     0.046   0.2% |
 Davidson:                            8.872     8.872  33.8% |-------------|
 Density:                             2.222     0.000   0.0% |
  Atomic density matrices:            0.061     0.061   0.2% |
  Mix:                                0.326     0.326   1.2% |
  Multipole moments:                  0.001     0.001   0.0% |
  Pseudo density:                     1.834     1.437   5.5% |-|
   Symmetrize density:                0.397     0.397   1.5% ||
 Hamiltonian:                         5.781     0.297   1.1% |
  Atomic:                             4.581     0.005   0.0% |
   XC Correction:                     4.575     4.575  17.4% |------|
  Communicate energies:               0.000     0.000   0.0% |
  Poisson:                            0.006     0.006   0.0% |
  XC 3D grid:                         0.897     0.897   3.4% ||
 Orthonormalize:                      0.601     0.005   0.0% |
  Band Layouts:                       0.006     0.001   0.0% |
   Inverse Cholesky:                  0.005     0.005   0.0% |
  calc_s_matrix:                      0.094     0.094   0.4% |
  projections:                        0.399     0.399   1.5% ||
  rotate_psi:                         0.097     0.097   0.4% |
 Subspace diag:                       1.764     0.010   0.0% |
  Band Layouts:                       0.032     0.002   0.0% |
   Diagonalize:                       0.028     0.028   0.1% |
   Distribute results:                0.002     0.002   0.0% |
  calc_h_matrix:                      1.547     1.547   5.9% |-|
  rotate_psi:                         0.175     0.175   0.7% |
Other:                                3.977     3.977  15.2% |-----|
============================================================
Total:                                         26.220 100.0%
============================================================
date: Wed Feb 18 21:04:38 2015
