
  ___ ___ ___ _ _ _  
 |   |   |_  | | | | 
 | | | | | . | | | | 
 |__ |  _|___|_____|  0.9.1.9737
 |___|_|             

User:  hjelmare@beda63-2.nfs.private
Date:  Wed Feb 25 13:35:53 2015
Arch:  x86_64
Pid:   13789
Dir:   /beda/sw/apps/GPAW/r9737-py26-i111-mkl102/lib/python2.6/site-packages/gpaw
ase:   /beda/sw/apps/ase/r2828/lib/python2.6/site-packages/ase (version 3.6.1.2828)
numpy: /beda/sw/apps/numpy/py26/1.5.1rc2/mkl10.2/lib/python2.6/site-packages/numpy (version 1.5.1rc2)
units: Angstrom and eV
cores: 1

Memory estimate
---------------
Process memory now: 92.98 MiB
Calculator  25.58 MiB
    Density  7.63 MiB
        Arrays  3.10 MiB
        Localized functions  3.82 MiB
        Mixer  0.72 MiB
    Hamiltonian  2.12 MiB
        Arrays  2.03 MiB
        XC  0.00 MiB
        Poisson  0.00 MiB
        vbar  0.09 MiB
    Wavefunctions  15.83 MiB
        Arrays psit_nG  9.78 MiB
        Eigensolver  0.75 MiB
        Projectors  3.85 MiB
        Overlap op  0.55 MiB
        PW-descriptor  0.90 MiB

Positions:
  0 Mg    0.0000    0.0000    0.0000
  1 Mg    2.5000    2.5000    0.0000
  2 Mg    2.5000    0.0000    2.5000
  3 Al    0.0000    2.5000    2.5000

    .-----------.  
   /|           |  
  / |           |  
 *  |           |  
 |  |           |  
 | Al           |  
 |  .--Mg-------.  
 | /     Mg    /   
 |/           /    
 Mg----------*     

Unit Cell:
           Periodic     X           Y           Z      Points  Spacing
  --------------------------------------------------------------------
  1. axis:    yes    5.000000    0.000000    0.000000    25     0.2000
  2. axis:    yes    0.000000    5.000000    0.000000    25     0.2000
  3. axis:    yes    0.000000    0.000000    5.000000    25     0.2000

Mg-setup:
  name   : Magnesium
  id     : b56b6cab5149d5bf22ad04c2f71a3023
  Z      : 12
  valence: 10
  core   : 2
  charge : 0.0
  file   : /beda/sw/apps/GPAW/r9737-py26-i111-mkl102/gpaw-setups-0.9.9672/Mg.PBE.gz
  cutoffs: 1.03(comp), 1.86(filt), 0.54(core), lmax=2
  valence states:
            energy   radius
    2s(2)  -79.840   1.090
    3s(2)   -4.705   1.090
    2p(6)  -46.613   1.085
    3p(0)   -1.330   1.085
    *d       0.000   1.037

Using partial waves for Mg as LCAO basis

Al-setup:
  name   : Aluminium
  id     : 0292cae29f5d6237e50f6abdd43a7bdd
  Z      : 13
  valence: 3
  core   : 10
  charge : 0.0
  file   : /beda/sw/apps/GPAW/r9737-py26-i111-mkl102/gpaw-setups-0.9.9672/Al.PBE.gz
  cutoffs: 1.08(comp), 1.91(filt), 2.36(core), lmax=2
  valence states:
            energy   radius
    3s(2)   -7.753   1.085
    3p(1)   -2.712   1.085
    *s      19.459   1.085
    *p      24.500   1.085
    *d       0.000   1.085

Using partial waves for Al as LCAO basis

Using the PBE Exchange-Correlation Functional.
Spin-Paired Calculation
Total Charge:      0.000000
Fermi Temperature: 0.100000
Wave functions: Plane wave expansion
      Cutoff energy: 300.000 eV
      Number of coefficients (min, max): 1457, 1484
      Using FFTW library
Eigensolver:       dav
XC and Coulomb potentials evaluated on a 50*50*50 grid
Interpolation: FFT
Poisson solver: FFT
Reference Energy:  -22952.366055

Total number of cores used: 1

Symmetries present: 16
216 k-points: 6 x 6 x 6 Monkhorst-Pack grid
18 k-points in the Irreducible Part of the Brillouin Zone
Linear Mixing Parameter:           0.1
Pulay Mixing with 3 Old Densities
Damping of Long Wave Oscillations: 50

Convergence Criteria:
Total Energy Change:           0.0005 eV / electron
Integral of Absolute Density Change:    0.0001 electrons
Integral of Absolute Eigenstate Change: 4e-08 eV^2
Number of Atoms: 4
Number of Atomic Orbitals: 28
Number of Bands in Calculation:         24
Bands to Converge:                      Occupied States Only
Number of Valence Electrons:            33
                     log10-error:    Total        Iterations:
           Time      WFS    Density  Energy       Fermi  Poisson
iter:   1  13:36:01  -0.2              -6.661356  3             
iter:   2  13:36:04  -2.2              -6.664648  2             
iter:   3  13:36:07  -2.9              -6.664947  1             
iter:   4  13:36:11  -3.2   -1.3       -6.619070  2             
iter:   5  13:36:15  -1.9   -1.4       -6.560792  3             
iter:   6  13:36:19  -2.7   -1.8       -6.543904  3             
iter:   7  13:36:23  -3.7   -2.6       -6.541829  2             
iter:   8  13:36:27  -5.2   -3.1       -6.541679  2             
iter:   9  13:36:31  -4.8   -3.2       -6.541191  2             
iter:  10  13:36:35  -6.3   -3.4       -6.541179  2             
iter:  11  13:36:39  -6.1   -3.6       -6.541174  2             
iter:  12  13:36:44  -7.4   -3.8       -6.541176  2             
iter:  13  13:36:48  -6.5   -3.9       -6.541172  2             
iter:  14  13:36:52  -8.1   -4.4       -6.541172  1             
------------------------------------
Converged After 14 Iterations.

Energy Contributions Relative to Reference Atoms:(reference = -22952.366055)
-------------------------
Kinetic:        -12.485725
Potential:      +12.923996
External:        +0.000000
XC:              -6.867120
Entropy (-ST):   -0.074195
Local:           -0.075226
-------------------------
Free Energy:     -6.578270
Zero Kelvin:     -6.541172

Fermi Level: 1.96575


Memory usage: 99.80 MB

============================================================
Timing:                               incl.     excl.
============================================================
Initialization:                       4.400     1.522   2.6% ||
 Hamiltonian:                         0.654     0.055   0.1% |
  Atomic:                             0.426     0.000   0.0% |
   XC Correction:                     0.426     0.426   0.7% |
  Communicate energies:               0.000     0.000   0.0% |
  Initialize Hamiltonian:             0.000     0.000   0.0% |
  Poisson:                            0.001     0.001   0.0% |
  XC 3D grid:                         0.171     0.171   0.3% |
 LCAO initialization:                 2.136     0.256   0.4% |
  LCAO eigensolver:                   0.386     0.001   0.0% |
   Atomic Hamiltonian:                0.004     0.004   0.0% |
   Calculate projections:             0.002     0.002   0.0% |
   Distribute overlap matrix:         0.001     0.001   0.0% |
   Orbital Layouts:                   0.008     0.008   0.0% |
   Potential matrix:                  0.341     0.341   0.6% |
   Sum over cells:                    0.031     0.031   0.1% |
  LCAO to grid:                       0.949     0.949   1.6% ||
  Set positions (LCAO WFS):           0.545     0.000   0.0% |
   Basic WFS set positions:           0.003     0.003   0.0% |
   Basis functions set positions:     0.000     0.000   0.0% |
   TCI: Calculate S, T, P:            0.542     0.542   0.9% |
 PWDescriptor:                        0.088     0.088   0.2% |
SCF-cycle:                           53.903     0.085   0.1% |
 Davidson:                           31.505    31.505  54.0% |---------------------|
 Density:                             5.952     0.000   0.0% |
  Atomic density matrices:            0.049     0.049   0.1% |
  Mix:                                0.647     0.647   1.1% |
  Multipole moments:                  0.001     0.001   0.0% |
  Pseudo density:                     5.255     4.996   8.6% |--|
   Symmetrize density:                0.259     0.259   0.4% |
 Hamiltonian:                         7.163     0.603   1.0% |
  Atomic:                             4.701     0.005   0.0% |
   XC Correction:                     4.695     4.695   8.1% |--|
  Communicate energies:               0.000     0.000   0.0% |
  Poisson:                            0.011     0.011   0.0% |
  XC 3D grid:                         1.848     1.848   3.2% ||
 Orthonormalize:                      1.866     0.010   0.0% |
  Band Layouts:                       0.012     0.002   0.0% |
   Inverse Cholesky:                  0.010     0.010   0.0% |
  calc_s_matrix:                      0.288     0.288   0.5% |
  projections:                        1.247     1.247   2.1% ||
  rotate_psi:                         0.310     0.310   0.5% |
 Subspace diag:                       7.333     0.018   0.0% |
  Band Layouts:                       0.061     0.004   0.0% |
   Diagonalize:                       0.054     0.054   0.1% |
   Distribute results:                0.004     0.004   0.0% |
  calc_h_matrix:                      6.680     6.680  11.5% |----|
  rotate_psi:                         0.573     0.573   1.0% |
Other:                                0.019     0.019   0.0% |
============================================================
Total:                                         58.322 100.0%
============================================================
date: Wed Feb 25 13:36:52 2015
