
  ___ ___ ___ _ _ _  
 |   |   |_  | | | | 
 | | | | | . | | | | 
 |__ |  _|___|_____|  0.9.1.9737
 |___|_|             

User:  albinka@beda31-4.nfs.private
Date:  Sun Mar  1 13:14:05 2015
Arch:  x86_64
Pid:   11123
Dir:   /beda/sw/apps/GPAW/r9737-py26-i111-mkl102/lib/python2.6/site-packages/gpaw
ase:   /beda/sw/apps/ase/r2828/lib/python2.6/site-packages/ase (version 3.6.1.2828)
numpy: /beda/sw/apps/numpy/py26/1.5.1rc2/mkl10.2/lib/python2.6/site-packages/numpy (version 1.5.1rc2)
units: Angstrom and eV
cores: 1

Memory estimate
---------------
Process memory now: 54.75 MiB
Calculator  85.51 MiB
    Density  7.45 MiB
        Arrays  2.74 MiB
        Localized functions  4.07 MiB
        Mixer  0.63 MiB
    Hamiltonian  1.90 MiB
        Arrays  1.79 MiB
        XC  0.00 MiB
        Poisson  0.00 MiB
        vbar  0.11 MiB
    Wavefunctions  76.16 MiB
        Arrays psit_nG  59.96 MiB
        Eigensolver  2.24 MiB
        Projectors  11.17 MiB
        Overlap op  1.56 MiB
        PW-descriptor  1.23 MiB

Positions:
  0 Mg    0.0000    0.0000    0.0000
  1 Mg    2.1896    2.1896    0.0000
  2 Mg    2.1896    0.0000    2.1896
  3 Mg    0.0000    2.1896    2.1896
  4 S     2.1896    0.0000    0.0000
  5 S     4.3793    0.0000    2.1896
  6 S     2.1896    2.1896    2.1896
  7 Al    4.3793    2.1896    0.0000

    .----------.  
   /|          |  
  / |          |  
 *  |          |  
 |Mg|   S      |  
 |  .----------.  
 S /  Mg      /   
 |/l    Mg   /    
 Mg---S-----*     

Unit Cell:
           Periodic     X           Y           Z      Points  Spacing
  --------------------------------------------------------------------
  1. axis:    yes    4.379300    0.000000    0.000000    24     0.1825
  2. axis:    yes    0.000000    4.379300    0.000000    24     0.1825
  3. axis:    yes    0.000000    0.000000    4.379300    24     0.1825

Mg-setup:
  name   : Magnesium
  id     : b56b6cab5149d5bf22ad04c2f71a3023
  Z      : 12
  valence: 10
  core   : 2
  charge : 0.0
  file   : /beda/sw/apps/GPAW/r9737-py26-i111-mkl102/gpaw-setups-0.9.9672/Mg.PBE.gz
  cutoffs: 1.03(comp), 1.86(filt), 0.54(core), lmax=2
  valence states:
            energy   radius
    2s(2)  -79.840   1.090
    3s(2)   -4.705   1.090
    2p(6)  -46.613   1.085
    3p(0)   -1.330   1.085
    *d       0.000   1.037

LCAO basis set for Mg:
  Name: dzp
  Basis set was loaded from file /beda/sw/apps/GPAW/r9737-py26-i111-mkl102/gpaw-setups-0.9.9672/Mg.dzp.basis.gz
  Number of radial functions: 7
  Number of spherical harmonics: 15
    l=0, rc=2.7969 Bohr: 2s-sz confined orbital
    l=0, rc=9.2344 Bohr: 3s-sz confined orbital
    l=1, rc=3.1406 Bohr: 2p-sz confined orbital
    l=0, rc=1.8125 Bohr: 2s-dz split-valence wave
    l=0, rc=5.5156 Bohr: 3s-dz split-valence wave
    l=1, rc=2.0938 Bohr: 2p-dz split-valence wave
    l=2, rc=3.1406 Bohr: d-type Gaussian polarization

S-setup:
  name   : Sulfur
  id     : ca434db9faa07220b7a1d8cb6886b7a9
  Z      : 16
  valence: 6
  core   : 10
  charge : 0.0
  file   : /beda/sw/apps/GPAW/r9737-py26-i111-mkl102/gpaw-setups-0.9.9672/S.PBE.gz
  cutoffs: 0.76(comp), 1.77(filt), 1.66(core), lmax=2
  valence states:
            energy   radius
    3s(2)  -17.254   0.974
    3p(4)   -7.008   0.979
    *s       9.957   0.974
    *p      20.203   0.979
    *d       0.000   0.900

LCAO basis set for S:
  Name: dzp
  Basis set was loaded from file /beda/sw/apps/GPAW/r9737-py26-i111-mkl102/gpaw-setups-0.9.9672/S.dzp.basis.gz
  Number of radial functions: 5
  Number of spherical harmonics: 13
    l=0, rc=5.5156 Bohr: 3s-sz confined orbital
    l=1, rc=6.9375 Bohr: 3p-sz confined orbital
    l=0, rc=3.0469 Bohr: 3s-dz split-valence wave
    l=1, rc=3.9375 Bohr: 3p-dz split-valence wave
    l=2, rc=6.9375 Bohr: d-type Gaussian polarization

Al-setup:
  name   : Aluminium
  id     : 0292cae29f5d6237e50f6abdd43a7bdd
  Z      : 13
  valence: 3
  core   : 10
  charge : 0.0
  file   : /beda/sw/apps/GPAW/r9737-py26-i111-mkl102/gpaw-setups-0.9.9672/Al.PBE.gz
  cutoffs: 1.08(comp), 1.91(filt), 2.36(core), lmax=2
  valence states:
            energy   radius
    3s(2)   -7.753   1.085
    3p(1)   -2.712   1.085
    *s      19.459   1.085
    *p      24.500   1.085
    *d       0.000   1.085

LCAO basis set for Al:
  Name: dzp
  Basis set was loaded from file /beda/sw/apps/GPAW/r9737-py26-i111-mkl102/gpaw-setups-0.9.9672/Al.dzp.basis.gz
  Number of radial functions: 5
  Number of spherical harmonics: 13
    l=0, rc=7.8750 Bohr: 3s-sz confined orbital
    l=1, rc=10.4219 Bohr: 3p-sz confined orbital
    l=0, rc=4.6094 Bohr: 3s-dz split-valence wave
    l=1, rc=6.2812 Bohr: 3p-dz split-valence wave
    l=2, rc=10.4219 Bohr: d-type Gaussian polarization

Using the PBE Exchange-Correlation Functional.
Spin-Paired Calculation
Total Charge:      0.000000
Fermi Temperature: 0.100000
Wave functions: Plane wave expansion
      Cutoff energy: 400.000 eV
      Number of coefficients (min, max): 1505, 1535
      Using FFTW library
Eigensolver:       dav
XC and Coulomb potentials evaluated on a 48*48*48 grid
Interpolation: FFT
Poisson solver: FFT
Reference Energy:  -60974.884094

Total number of cores used: 1

Symmetries present: 16
512 k-points: 8 x 8 x 8 Monkhorst-Pack grid
40 k-points in the Irreducible Part of the Brillouin Zone
Linear Mixing Parameter:           0.1
Pulay Mixing with 3 Old Densities
Damping of Long Wave Oscillations: 50

Convergence Criteria:
Total Energy Change:           0.0005 eV / electron
Integral of Absolute Density Change:    0.0001 electrons
Integral of Absolute Eigenstate Change: 4e-08 eV^2
Number of Atoms: 8
Number of Atomic Orbitals: 112
Number of Bands in Calculation:         64
Bands to Converge:                      Occupied States Only
Number of Valence Electrons:            61
                     log10-error:    Total        Iterations:
           Time      WFS    Density  Energy       Fermi  Poisson
iter:   1  13:14:55  +1.5             -11.232787  3             
iter:   2  13:15:15  -0.7             -11.316725  2             
iter:   3  13:15:35  -1.4             -11.331330  2             
iter:   4  13:15:58  -2.7   -1.4      -11.190119  4             
iter:   5  13:16:21  -1.9   -1.4      -10.973692  7             
iter:   6  13:16:45  -3.1   -2.0      -10.958348  3             
iter:   7  13:17:08  -3.5   -2.1      -10.957916  4             
iter:   8  13:17:31  -4.8   -2.5      -10.952966  3             
iter:   9  13:17:54  -5.2   -2.9      -10.953135  3             
iter:  10  13:18:17  -7.6   -3.3      -10.953096  2             
iter:  11  13:18:41  -6.2   -3.4      -10.952982  2             
iter:  12  13:19:04  -8.0   -3.8      -10.952978  2             
iter:  13  13:19:27  -7.0   -3.9      -10.952972  2             
iter:  14  13:19:50  -8.6   -4.4      -10.952972  2             
------------------------------------
Converged After 14 Iterations.

Energy Contributions Relative to Reference Atoms:(reference = -60974.884094)
-------------------------
Kinetic:       +233.194966
Potential:     -168.733487
External:        +0.000000
XC:             -74.976672
Entropy (-ST):   -0.068231
Local:           -0.403663
-------------------------
Free Energy:    -10.987088
Zero Kelvin:    -10.952972

Fermi Level: 12.82466


Memory usage: 199.71 MB

============================================================
Timing:                               incl.     excl.
============================================================
IO:                                   0.270     0.000   0.0% |
 Write:                               0.269     0.000   0.0% |
  Atomic matrices:                    0.001     0.001   0.0% |
  Band energies:                      0.001     0.001   0.0% |
  Close:                              0.002     0.002   0.0% |
  Meta data:                          0.037     0.037   0.0% |
  Projections:                        0.014     0.014   0.0% |
  Pseudo-density:                     0.000     0.000   0.0% |
  Pseudo-potential:                   0.000     0.000   0.0% |
  Pseudo-wavefunctions:               0.213     0.213   0.1% |
Initialization:                      29.510     2.831   0.8% |
 Hamiltonian:                         1.095     0.086   0.0% |
  Atomic:                             0.853     0.001   0.0% |
   XC Correction:                     0.852     0.852   0.2% |
  Communicate energies:               0.000     0.000   0.0% |
  Initialize Hamiltonian:             0.000     0.000   0.0% |
  Poisson:                            0.001     0.001   0.0% |
  XC 3D grid:                         0.154     0.154   0.0% |
 LCAO initialization:                25.412     1.856   0.5% |
  LCAO eigensolver:                   3.698     0.005   0.0% |
   Atomic Hamiltonian:                0.095     0.095   0.0% |
   Calculate projections:             0.039     0.039   0.0% |
   Distribute overlap matrix:         0.005     0.005   0.0% |
   Orbital Layouts:                   0.431     0.431   0.1% |
   Potential matrix:                  2.007     2.007   0.6% |
   Sum over cells:                    1.116     1.116   0.3% |
  LCAO to grid:                      12.378    12.378   3.6% ||
  Set positions (LCAO WFS):           7.480     0.002   0.0% |
   Basic WFS set positions:           0.005     0.005   0.0% |
   Basis functions set positions:     0.000     0.000   0.0% |
   TCI: Calculate S, T, P:            7.473     7.473   2.2% ||
 PWDescriptor:                        0.172     0.172   0.0% |
SCF-cycle:                          315.862     0.248   0.1% |
 Davidson:                          214.979   214.979  62.2% |------------------------|
 Density:                            27.097     0.000   0.0% |
  Atomic density matrices:            0.219     0.219   0.1% |
  Mix:                                0.945     0.945   0.3% |
  Multipole moments:                  0.002     0.002   0.0% |
  Pseudo density:                    25.930    25.703   7.4% |--|
   Symmetrize density:                0.228     0.228   0.1% |
 Hamiltonian:                        11.901     0.900   0.3% |
  Atomic:                             9.352     0.010   0.0% |
   XC Correction:                     9.342     9.342   2.7% ||
  Communicate energies:               0.000     0.000   0.0% |
  Poisson:                            0.010     0.010   0.0% |
  XC 3D grid:                         1.639     1.639   0.5% |
 Orthonormalize:                     17.373     0.032   0.0% |
  Band Layouts:                       0.135     0.005   0.0% |
   Inverse Cholesky:                  0.130     0.130   0.0% |
  calc_s_matrix:                      3.431     3.431   1.0% |
  projections:                        9.553     9.553   2.8% ||
  rotate_psi:                         4.223     4.223   1.2% |
 Subspace diag:                      44.265     0.050   0.0% |
  Band Layouts:                       1.039     0.010   0.0% |
   Diagonalize:                       1.018     1.018   0.3% |
   Distribute results:                0.011     0.011   0.0% |
  calc_h_matrix:                     35.540    35.540  10.3% |---|
  rotate_psi:                         7.636     7.636   2.2% ||
Other:                                0.018     0.018   0.0% |
============================================================
Total:                                        345.660 100.0%
============================================================
date: Sun Mar  1 13:19:51 2015
