
  ___ ___ ___ _ _ _  
 |   |   |_  | | | | 
 | | | | | . | | | | 
 |__ |  _|___|_____|  0.9.1.9737
 |___|_|             

User:  albinka@beda17-3.nfs.private
Date:  Fri Feb 27 10:18:49 2015
Arch:  x86_64
Pid:   32699
Dir:   /beda/sw/apps/GPAW/r9737-py26-i111-mkl102/lib/python2.6/site-packages/gpaw
ase:   /beda/sw/apps/ase/r2828/lib/python2.6/site-packages/ase (version 3.6.1.2828)
numpy: /beda/sw/apps/numpy/py26/1.5.1rc2/mkl10.2/lib/python2.6/site-packages/numpy (version 1.5.1rc2)
units: Angstrom and eV
cores: 1

Memory estimate
---------------
Process memory now: 175.91 MiB
Calculator  400.43 MiB
    Density  6.76 MiB
        Arrays  2.74 MiB
        Localized functions  3.39 MiB
        Mixer  0.63 MiB
    Hamiltonian  1.87 MiB
        Arrays  1.79 MiB
        XC  0.00 MiB
        Poisson  0.00 MiB
        vbar  0.08 MiB
    Wavefunctions  391.80 MiB
        Arrays psit_nG  258.99 MiB
        Eigensolver  0.59 MiB
        Projectors  121.62 MiB
        Overlap op  0.48 MiB
        PW-descriptor  10.13 MiB

Positions:
  0 Mg    0.0000    0.0000    0.0000
  1 Mg    2.1896    2.1896    0.0000
  2 Mg    2.1896    0.0000    2.1896
  3 Al    0.0000    2.1896    2.1896

    .----------.  
   /|          |  
  / |          |  
 *  |          |  
 |Al|          |  
 |  .----------.  
 | /  Mg      /   
 |/     Mg   /    
 Mg---------*     

Unit Cell:
           Periodic     X           Y           Z      Points  Spacing
  --------------------------------------------------------------------
  1. axis:    yes    4.379300    0.000000    0.000000    24     0.1825
  2. axis:    yes    0.000000    4.379300    0.000000    24     0.1825
  3. axis:    yes    0.000000    0.000000    4.379300    24     0.1825

Mg-setup:
  name   : Magnesium
  id     : b56b6cab5149d5bf22ad04c2f71a3023
  Z      : 12
  valence: 10
  core   : 2
  charge : 0.0
  file   : /beda/sw/apps/GPAW/r9737-py26-i111-mkl102/gpaw-setups-0.9.9672/Mg.PBE.gz
  cutoffs: 1.03(comp), 1.86(filt), 0.54(core), lmax=2
  valence states:
            energy   radius
    2s(2)  -79.840   1.090
    3s(2)   -4.705   1.090
    2p(6)  -46.613   1.085
    3p(0)   -1.330   1.085
    *d       0.000   1.037

LCAO basis set for Mg:
  Name: dzp
  Basis set was loaded from file /beda/sw/apps/GPAW/r9737-py26-i111-mkl102/gpaw-setups-0.9.9672/Mg.dzp.basis.gz
  Number of radial functions: 7
  Number of spherical harmonics: 15
    l=0, rc=2.7969 Bohr: 2s-sz confined orbital
    l=0, rc=9.2344 Bohr: 3s-sz confined orbital
    l=1, rc=3.1406 Bohr: 2p-sz confined orbital
    l=0, rc=1.8125 Bohr: 2s-dz split-valence wave
    l=0, rc=5.5156 Bohr: 3s-dz split-valence wave
    l=1, rc=2.0938 Bohr: 2p-dz split-valence wave
    l=2, rc=3.1406 Bohr: d-type Gaussian polarization

Al-setup:
  name   : Aluminium
  id     : 0292cae29f5d6237e50f6abdd43a7bdd
  Z      : 13
  valence: 3
  core   : 10
  charge : 0.0
  file   : /beda/sw/apps/GPAW/r9737-py26-i111-mkl102/gpaw-setups-0.9.9672/Al.PBE.gz
  cutoffs: 1.08(comp), 1.91(filt), 2.36(core), lmax=2
  valence states:
            energy   radius
    3s(2)   -7.753   1.085
    3p(1)   -2.712   1.085
    *s      19.459   1.085
    *p      24.500   1.085
    *d       0.000   1.085

LCAO basis set for Al:
  Name: dzp
  Basis set was loaded from file /beda/sw/apps/GPAW/r9737-py26-i111-mkl102/gpaw-setups-0.9.9672/Al.dzp.basis.gz
  Number of radial functions: 5
  Number of spherical harmonics: 13
    l=0, rc=7.8750 Bohr: 3s-sz confined orbital
    l=1, rc=10.4219 Bohr: 3p-sz confined orbital
    l=0, rc=4.6094 Bohr: 3s-dz split-valence wave
    l=1, rc=6.2812 Bohr: 3p-dz split-valence wave
    l=2, rc=10.4219 Bohr: d-type Gaussian polarization

Using the PBE Exchange-Correlation Functional.
Spin-Paired Calculation
Total Charge:      0.000000
Fermi Temperature: 0.100000
Wave functions: Plane wave expansion
      Cutoff energy: 400.000 eV
      Number of coefficients (min, max): 1506, 1543
      Using FFTW library
Eigensolver:       rmm-diis
XC and Coulomb potentials evaluated on a 48*48*48 grid
Interpolation: FFT
Poisson solver: FFT
Reference Energy:  -22952.366055

Total number of cores used: 1

Symmetries present: 16
8000 k-points: 20 x 20 x 20 Monkhorst-Pack grid
550 k-points in the Irreducible Part of the Brillouin Zone
Linear Mixing Parameter:           0.1
Pulay Mixing with 3 Old Densities
Damping of Long Wave Oscillations: 50

Convergence Criteria:
Total Energy Change:           0.0005 eV / electron
Integral of Absolute Density Change:    0.0001 electrons
Integral of Absolute Eigenstate Change: 4e-08 eV^2
Number of Atoms: 4
Number of Atomic Orbitals: 58
Number of Bands in Calculation:         20
Bands to Converge:                      Occupied States Only
Number of Valence Electrons:            33
                     log10-error:    Total        Iterations:
           Time      WFS    Density  Energy       Fermi  Poisson
iter:   1  10:21:00  +1.1              -6.512658  2             
iter:   2  10:21:41  +0.7              -6.868770  2             
iter:   3  10:22:23  +0.7              -6.937322  2             
iter:   4  10:23:16  +0.5   -1.4       -6.816109  3             
iter:   5  10:24:08  +0.5   -1.5       -6.610671  3             
iter:   6  10:25:01  +0.5   -2.2       -6.463124  3             
iter:   7  10:25:54  +0.5   -2.2       -6.293787  3             
iter:   8  10:26:46  +0.6   -2.6       -6.100781  2             
iter:   9  10:27:39  +0.6   -2.7       -5.883949  2             
iter:  10  10:28:31  +0.7   -2.6       -5.623468  2             
iter:  11  10:29:24  +0.7   -2.3       -5.325492  3             
iter:  12  10:30:16  +0.8   -2.2       -4.987345  3             
iter:  13  10:31:09  +0.9   -2.2       -4.601175  3             
iter:  14  10:32:02  +0.9   -2.0       -4.148913  3             
iter:  15  10:32:54  +1.0   -2.2       -3.643238  3             
iter:  16  10:33:47  +1.1   -2.1       -3.067588  3             
iter:  17  10:34:39  +1.2   -2.0       -2.402228  3             
iter:  18  10:35:32  +1.3   -1.9       -1.624653  3             
iter:  19  10:36:24  +1.4   -1.9       -0.818073  2             
iter:  20  10:37:17  +1.4   -1.6        0.320395  3             
iter:  21  10:38:10  +1.5   -1.9        1.479294  3             
iter:  22  10:39:02  +1.6   -1.7        2.787193  3             
iter:  23  10:39:55  +1.7   -1.4        4.595826  5             
iter:  24  10:40:48  +1.8   -1.8        6.591307  4             
iter:  25  10:41:40  +2.0   -1.9        8.975124  4             
iter:  26  10:42:33  +2.1   -1.9       11.797427  4             
iter:  27  10:43:26  +2.2   -1.8       14.993404  3             
iter:  28  10:44:19  +2.3   -1.4       19.218824  6             
iter:  29  10:45:11  +2.3   -1.7       23.912819  5             
iter:  30  10:46:04  +2.4   -1.7       29.316259  7             
iter:  31  10:46:57  +2.4   -1.7       34.739560  8             
iter:  32  10:47:50  +2.3   -1.8       39.785991  10            
iter:  33  10:48:43  +2.3   -1.9       44.703640  9             
iter:  34  10:49:36  +2.3   -1.9       49.646508  8             
iter:  35  10:50:29  +2.3   -1.8       54.599900  9             
iter:  36  10:51:22  +2.3   -1.7       59.501753  10            
iter:  37  10:52:15  +2.3   -1.6       64.407419  10            
iter:  38  10:53:08  +2.3   -1.5       69.265113  10            
iter:  39  10:54:01  +2.4   -1.4       74.277108  12            
iter:  40  10:54:54  +2.4   -1.4       79.226348  14            
iter:  41  10:55:48  +2.4   -1.3       83.614754  12            
iter:  42  10:56:41  +2.4   -1.2       89.738579  20            
iter:  43  10:57:34  +2.4   -1.2       95.264304  14            
iter:  44  10:58:28  +2.4   -1.2      100.857838  15            
iter:  45  10:59:21  +2.5   -1.2      106.605210  14            
iter:  46  11:00:15  +2.5   -1.2      112.105778  27            
iter:  47  11:01:07  +2.5   -1.3      118.758053  6             
iter:  48  11:02:01  +2.5   -1.9      124.718939  11            
iter:  49  11:02:54  +2.5   -2.2      130.758557  11            
iter:  50  11:03:47  +2.6   -2.3      136.894117  12            
iter:  51  11:04:40  +2.6   -2.2      143.077721  11            
iter:  52  11:05:33  +2.6   -1.8      149.386407  12            
iter:  53  11:06:27  +2.6   -1.7      155.827356  13            
iter:  54  11:07:20  +2.6   -1.8      162.269267  12            
iter:  55  11:08:13  +2.6   -1.7      168.969513  16            
iter:  56  11:09:06  +2.6   -2.2      175.564213  13            
iter:  57  11:10:00  +2.7   -2.1      182.175440  12            
iter:  58  11:10:53  +2.7   -1.8      188.896744  14            
iter:  59  11:11:46  +2.7   -1.9      195.577761  13            
iter:  60  11:12:39  +2.7   -1.7      202.371785  15            
iter:  61  11:13:33  +2.7   -1.9      209.151223  12            
iter:  62  11:14:26  +2.7   -1.7      215.958586  13            
iter:  63  11:15:19  +2.7   -1.7      222.839519  14            
iter:  64  11:16:12  +2.7   -1.7      229.707086  12            
iter:  65  11:17:06  +2.7   -1.7      236.614421  13            
iter:  66  11:17:59  +2.7   -1.4      243.539334  14            
iter:  67  11:18:52  +2.7   -2.0      250.527662  13            
iter:  68  11:19:46  +2.7   -2.2      257.552763  13            
iter:  69  11:20:39  +2.7   -2.2      264.601329  13            
iter:  70  11:21:32  +2.7   -2.2      271.658871  13            
iter:  71  11:22:25  +2.7   -1.8      278.718205  13            
iter:  72  11:23:19  +2.7   -2.0      285.807397  12            
iter:  73  11:24:12  +2.7   -1.8      292.905721  11            
iter:  74  11:25:05  +2.7   -2.0      299.930283  10            
iter:  75  11:25:58  +2.8   -1.6      307.049402  10            
iter:  76  11:26:51  +2.8   -1.9      314.157891  10            
iter:  77  11:27:45  +2.8   -1.8      321.369900  9             
iter:  78  11:28:38  +2.8   -2.0      328.621591  10            
iter:  79  11:29:31  +2.8   -2.1      335.920670  10            
iter:  80  11:30:24  +2.8   -2.2      343.284305  10            
iter:  81  11:31:17  +2.8   -2.1      350.597553  11            
iter:  82  11:32:10  +2.8   -2.1      357.547153  7             
iter:  83  11:33:03  +2.8   -1.5      364.593135  8             
iter:  84  11:33:57  +2.8   -1.5      371.828346  9             
iter:  85  11:34:49  +2.8   -1.6      376.568762  3             
iter:  86  11:35:43  +2.8   -1.1      385.906789  15            
iter:  87  11:36:36  +2.8   -2.0      393.254232  8             
iter:  88  11:37:29  +2.8   -1.9      400.539192  7             
iter:  89  11:38:22  +2.8   -1.7      407.732295  6             
iter:  90  11:39:15  +2.8   -1.6      414.910505  7             
iter:  91  11:40:08  +2.8   -1.6      421.518609  6             
iter:  92  11:41:01  +2.8   -1.3      428.808399  7             
iter:  93  11:41:54  +2.8   -1.5      436.048034  8             
iter:  94  11:42:47  +2.8   -1.6      443.484974  9             
iter:  95  11:43:40  +2.8   -1.9      451.185519  8             
iter:  96  11:44:33  +2.8   -1.8      457.940312  5             
iter:  97  11:45:26  +2.8   -1.5      464.944630  8             
iter:  98  11:46:19  +2.8   -1.9      472.027971  7             
iter:  99  11:47:12  +2.8   -1.8      477.679825  4             
iter: 100  11:48:05  +2.8   -1.3      484.466651  8             
iter: 101  11:48:58  +2.9   -1.5      491.014523  8             
iter: 102  11:49:51  +2.9   -1.7      497.766449  7             
iter: 103  11:50:45  +2.9   -1.8      504.348754  7             
iter: 104  11:51:38  +2.9   -1.9      510.756728  7             
iter: 105  11:52:31  +2.9   -1.9      517.450881  5             
iter: 106  11:53:24  +2.9   -1.7      523.127674  8             
iter: 107  11:54:17  +2.9   -2.0      529.202877  7             
iter: 108  11:55:10  +2.9   -2.2      535.131069  7             
iter: 109  11:56:03  +2.9   -2.0      541.164833  4             
iter: 110  11:56:56  +2.9   -1.6      546.223701  7             
iter: 111  11:57:49  +2.9   -2.3      551.648353  6             
iter: 112  11:58:42  +2.9   -2.2      556.667867  6             
iter: 113  11:59:35  +2.9   -1.8      561.278134  6             
iter: 114  12:00:28  +2.9   -1.8      565.738368  5             
iter: 115  12:01:21  +2.9   -1.6      570.092831  6             
iter: 116  12:02:13  +2.9   -1.9      574.594050  5             
