
  ___ ___ ___ _ _ _  
 |   |   |_  | | | | 
 | | | | | . | | | | 
 |__ |  _|___|_____|  0.9.1.9737
 |___|_|             

User:  albinka@beda61-3.nfs.private
Date:  Sun Mar  1 13:10:45 2015
Arch:  x86_64
Pid:   16128
Dir:   /beda/sw/apps/GPAW/r9737-py26-i111-mkl102/lib/python2.6/site-packages/gpaw
ase:   /beda/sw/apps/ase/r2828/lib/python2.6/site-packages/ase (version 3.6.1.2828)
numpy: /beda/sw/apps/numpy/py26/1.5.1rc2/mkl10.2/lib/python2.6/site-packages/numpy (version 1.5.1rc2)
units: Angstrom and eV
cores: 1

Memory estimate
---------------
Process memory now: 164.52 MiB
Calculator  901.97 MiB
    Density  6.76 MiB
        Arrays  2.74 MiB
        Localized functions  3.39 MiB
        Mixer  0.63 MiB
    Hamiltonian  1.87 MiB
        Arrays  1.79 MiB
        XC  0.00 MiB
        Poisson  0.00 MiB
        vbar  0.08 MiB
    Wavefunctions  893.34 MiB
        Arrays psit_nG  767.50 MiB
        Eigensolver  1.62 MiB
        Projectors  113.20 MiB
        Overlap op  1.56 MiB
        PW-descriptor  9.46 MiB
    .----------.  
   /|          |  
  / |          |  
 *  |          |  
 |Mg|   S      |  
 |  .----------.  
 S /  Mg      /   
 |/     Mg   /    
 Mg---S-----*     

Unit Cell:
           Periodic     X           Y           Z      Points  Spacing
  --------------------------------------------------------------------
  1. axis:    yes    4.379300    0.000000    0.000000    24     0.1825
  2. axis:    yes    0.000000    4.379300    0.000000    24     0.1825
  3. axis:    yes    0.000000    0.000000    4.379300    24     0.1825

Mg-setup:
  name   : Magnesium
  id     : b56b6cab5149d5bf22ad04c2f71a3023
  Z      : 12
  valence: 10
  core   : 2
  charge : 0.0
  file   : /beda/sw/apps/GPAW/r9737-py26-i111-mkl102/gpaw-setups-0.9.9672/Mg.PBE.gz
  cutoffs: 1.03(comp), 1.86(filt), 0.54(core), lmax=2
  valence states:
            energy   radius
    2s(2)  -79.840   1.090
    3s(2)   -4.705   1.090
    2p(6)  -46.613   1.085
    3p(0)   -1.330   1.085
    *d       0.000   1.037

LCAO basis set for Mg:
  Name: dzp
  Basis set was loaded from file /beda/sw/apps/GPAW/r9737-py26-i111-mkl102/gpaw-setups-0.9.9672/Mg.dzp.basis.gz
  Number of radial functions: 7
  Number of spherical harmonics: 15
    l=0, rc=2.7969 Bohr: 2s-sz confined orbital
    l=0, rc=9.2344 Bohr: 3s-sz confined orbital
    l=1, rc=3.1406 Bohr: 2p-sz confined orbital
    l=0, rc=1.8125 Bohr: 2s-dz split-valence wave
    l=0, rc=5.5156 Bohr: 3s-dz split-valence wave
    l=1, rc=2.0938 Bohr: 2p-dz split-valence wave
    l=2, rc=3.1406 Bohr: d-type Gaussian polarization

S-setup:
  name   : Sulfur
  id     : ca434db9faa07220b7a1d8cb6886b7a9
  Z      : 16
  valence: 6
  core   : 10
  charge : 0.0
  file   : /beda/sw/apps/GPAW/r9737-py26-i111-mkl102/gpaw-setups-0.9.9672/S.PBE.gz
  cutoffs: 0.76(comp), 1.77(filt), 1.66(core), lmax=2
  valence states:
            energy   radius
    3s(2)  -17.254   0.974
    3p(4)   -7.008   0.979
    *s       9.957   0.974
    *p      20.203   0.979
    *d       0.000   0.900

LCAO basis set for S:
  Name: dzp
  Basis set was loaded from file /beda/sw/apps/GPAW/r9737-py26-i111-mkl102/gpaw-setups-0.9.9672/S.dzp.basis.gz
  Number of radial functions: 5
  Number of spherical harmonics: 13
    l=0, rc=5.5156 Bohr: 3s-sz confined orbital
    l=1, rc=6.9375 Bohr: 3p-sz confined orbital
    l=0, rc=3.0469 Bohr: 3s-dz split-valence wave
    l=1, rc=3.9375 Bohr: 3p-dz split-valence wave
    l=2, rc=6.9375 Bohr: d-type Gaussian polarization

Using the PBE Exchange-Correlation Functional.
Spin-Paired Calculation
Total Charge:      0.000000
Fermi Temperature: 0.100000
Wave functions: Plane wave expansion
      Cutoff energy: 400.000 eV
      Number of coefficients (min, max): 1505, 1535
      Using FFTW library
Eigensolver:       rmm-diis
XC and Coulomb potentials evaluated on a 48*48*48 grid
Interpolation: FFT
Poisson solver: FFT
Reference Energy:  -65229.082232

Total number of cores used: 1

Symmetries present: 1
512 k-points: 8 x 8 x 8 Monkhorst-Pack grid
512 k-points in the Irreducible Part of the Brillouin Zone
Linear Mixing Parameter:           0.1
Pulay Mixing with 3 Old Densities
Damping of Long Wave Oscillations: 50

Convergence Criteria:
Total Energy Change:           0.0005 eV / electron
Integral of Absolute Density Change:    0.0001 electrons
Integral of Absolute Eigenstate Change: 4e-08 eV^2
Number of Atoms: 8
Number of Atomic Orbitals: 112
Number of Bands in Calculation:         64
Bands to Converge:                      12 Lowest Bands
Number of Valence Electrons:            64

Memory estimate
---------------
Process memory now: 164.55 MiB
Calculator  100.90 MiB
    Density  6.76 MiB
        Arrays  2.74 MiB
        Localized functions  3.39 MiB
        Mixer  0.63 MiB
    Hamiltonian  1.87 MiB
        Arrays  1.79 MiB
        XC  0.00 MiB
        Poisson  0.00 MiB
        vbar  0.08 MiB
    Wavefunctions  92.27 MiB
        Arrays psit_nG  76.56 MiB
        Eigensolver  1.65 MiB
        Projectors  11.06 MiB
        Overlap op  1.59 MiB
        PW-descriptor  1.40 MiB

Positions:
  0 Mg    0.0000    0.0000    0.0000
  1 Mg    2.1896    2.1896    0.0000
  2 Mg    2.1896    0.0000    2.1896
  3 Mg    0.0000    2.1896    2.1896
  4 S     2.1896    0.0000    0.0000
  5 S     4.3793    0.0000    2.1896
  6 S     2.1896    2.1896    2.1896
  7 S     4.3793    2.1896    0.0000

    .----------.  
   /|          |  
  / |          |  
 *  |          |  
 |Mg|   S      |  
 |  .----------.  
 S /  Mg      /   
 |/     Mg   /    
 Mg---S-----*     

Unit Cell:
           Periodic     X           Y           Z      Points  Spacing
  --------------------------------------------------------------------
  1. axis:    yes    4.379300    0.000000    0.000000    24     0.1825
  2. axis:    yes    0.000000    4.379300    0.000000    24     0.1825
  3. axis:    yes    0.000000    0.000000    4.379300    24     0.1825

Mg-setup:
  name   : Magnesium
  id     : b56b6cab5149d5bf22ad04c2f71a3023
  Z      : 12
  valence: 10
  core   : 2
  charge : 0.0
  file   : /beda/sw/apps/GPAW/r9737-py26-i111-mkl102/gpaw-setups-0.9.9672/Mg.PBE.gz
  cutoffs: 1.03(comp), 1.86(filt), 0.54(core), lmax=2
  valence states:
            energy   radius
    2s(2)  -79.840   1.090
    3s(2)   -4.705   1.090
    2p(6)  -46.613   1.085
    3p(0)   -1.330   1.085
    *d       0.000   1.037

LCAO basis set for Mg:
  Name: dzp
  Basis set was loaded from file /beda/sw/apps/GPAW/r9737-py26-i111-mkl102/gpaw-setups-0.9.9672/Mg.dzp.basis.gz
  Number of radial functions: 7
  Number of spherical harmonics: 15
    l=0, rc=2.7969 Bohr: 2s-sz confined orbital
    l=0, rc=9.2344 Bohr: 3s-sz confined orbital
    l=1, rc=3.1406 Bohr: 2p-sz confined orbital
    l=0, rc=1.8125 Bohr: 2s-dz split-valence wave
    l=0, rc=5.5156 Bohr: 3s-dz split-valence wave
    l=1, rc=2.0938 Bohr: 2p-dz split-valence wave
    l=2, rc=3.1406 Bohr: d-type Gaussian polarization

S-setup:
  name   : Sulfur
  id     : ca434db9faa07220b7a1d8cb6886b7a9
  Z      : 16
  valence: 6
  core   : 10
  charge : 0.0
  file   : /beda/sw/apps/GPAW/r9737-py26-i111-mkl102/gpaw-setups-0.9.9672/S.PBE.gz
  cutoffs: 0.76(comp), 1.77(filt), 1.66(core), lmax=2
  valence states:
            energy   radius
    3s(2)  -17.254   0.974
    3p(4)   -7.008   0.979
    *s       9.957   0.974
    *p      20.203   0.979
    *d       0.000   0.900

LCAO basis set for S:
  Name: dzp
  Basis set was loaded from file /beda/sw/apps/GPAW/r9737-py26-i111-mkl102/gpaw-setups-0.9.9672/S.dzp.basis.gz
  Number of radial functions: 5
  Number of spherical harmonics: 13
    l=0, rc=5.5156 Bohr: 3s-sz confined orbital
    l=1, rc=6.9375 Bohr: 3p-sz confined orbital
    l=0, rc=3.0469 Bohr: 3s-dz split-valence wave
    l=1, rc=3.9375 Bohr: 3p-dz split-valence wave
    l=2, rc=6.9375 Bohr: d-type Gaussian polarization

Using the PBE Exchange-Correlation Functional.
Spin-Paired Calculation
Total Charge:      0.000000
Fermi Temperature: 0.100000
Wave functions: Plane wave expansion
      Cutoff energy: 400.000 eV
      Number of coefficients (min, max): 1504, 1568
      Using FFTW library
Eigensolver:       rmm-diis
XC and Coulomb potentials evaluated on a 48*48*48 grid
Interpolation: FFT
Poisson solver: FFT
Reference Energy:  -65229.082232

Total number of cores used: 1

Symmetries present: 1
50 k-points
50 k-points in the Irreducible Part of the Brillouin Zone
Linear Mixing Parameter:           0.1
Pulay Mixing with 3 Old Densities
Damping of Long Wave Oscillations: 50

Convergence Criteria:
Total Energy Change:           0.0005 eV / electron
Integral of Absolute Density Change:    0.0001 electrons
Integral of Absolute Eigenstate Change: 4e-08 eV^2
Number of Atoms: 8
Number of Atomic Orbitals: 112
Number of Bands in Calculation:         64
Bands to Converge:                      12 Lowest Bands
Number of Valence Electrons:            64
                     log10-error:    Total        Iterations:
           Time      WFS    Density  Energy       Fermi  Poisson
iter:   1  13:11:40  +0.2             -14.724280  11            
iter:   2  13:11:57  +0.1             -15.180222  11            
iter:   3  13:12:13  -0.2             -15.147135  3             
iter:   4  13:12:29  -0.4             -14.891959  2             
iter:   5  13:12:46  -0.7             -14.486063  2             
iter:   6  13:13:02  -0.9             -13.939515  2             
iter:   7  13:13:18  -1.0             -13.211450  2             
iter:   8  13:13:35  -1.2             -12.253903  2             
iter:   9  13:13:51  -1.3             -10.964952  2             
iter:  10  13:14:07  -1.5              -9.221534  2             
iter:  11  13:14:24  -1.6              -6.832540  2             
iter:  12  13:14:40  -1.6              -3.521800  2             
iter:  13  13:14:56  -1.7               1.086872  2             
iter:  14  13:15:13  -1.8               7.492455  2             
iter:  15  13:15:29  -1.9              16.292596  2             
iter:  16  13:15:45  -2.0              28.127732  2             
iter:  17  13:16:02  -2.1              43.524536  3             
iter:  18  13:16:18  -2.2              62.636643  8             
iter:  19  13:16:34  -2.3              84.731986  21            
iter:  20  13:16:51  -2.4             107.987242  11            
iter:  21  13:17:07  -2.4             130.663661  10            
iter:  22  13:17:23  -2.5             151.240073  13            
iter:  23  13:17:40  -2.6             167.630038  11            
iter:  24  13:17:56  -2.7             181.017550  8             
iter:  25  13:18:13  -2.8             194.235533  5             
iter:  26  13:18:29  -2.9             207.101132  6             
iter:  27  13:18:45  -3.0             220.829574  5             
iter:  28  13:19:02  -3.1             235.021129  5             
iter:  29  13:19:18  -3.2             249.611876  5             
iter:  30  13:19:34  -3.3             263.534781  7             
iter:  31  13:19:51  -3.4             276.346962  6             
iter:  32  13:20:07  -3.5             288.915316  7             
iter:  33  13:20:23  -3.6             300.947344  6             
iter:  34  13:20:40  -3.7             312.866747  5             
iter:  35  13:20:56  -3.8             323.612049  6             
iter:  36  13:21:12  -3.9             331.937685  6             
iter:  37  13:21:29  -4.0             341.461367  6             
iter:  38  13:21:45  -4.1             348.975126  5             
iter:  39  13:22:01  -4.2             357.749993  6             
iter:  40  13:22:18  -4.3             365.832906  5             
iter:  41  13:22:34  -4.4             372.154479  5             
iter:  42  13:22:50  -4.5             379.616836  5             
iter:  43  13:23:07  -4.6             384.327232  4             
iter:  44  13:23:23  -4.7             390.881953  6             
iter:  45  13:23:39  -4.8             397.285653  5             
iter:  46  13:23:56  -4.9             402.908445  3             
iter:  47  13:24:12  -4.9             406.940030  4             
iter:  48  13:24:28  -5.0             414.965313  6             
iter:  49  13:24:45  -5.1             421.223075  5             
iter:  50  13:25:01  -5.2             427.326141  5             
iter:  51  13:25:17  -5.3             433.132155  5             
iter:  52  13:25:34  -5.4             438.902807  5             
iter:  53  13:25:50  -5.5             443.616567  4             
iter:  54  13:26:06  -5.6             449.075573  5             
iter:  55  13:26:23  -5.6             453.285345  4             
iter:  56  13:26:39  -5.7             458.413286  4             
iter:  57  13:26:55  -5.8             463.780267  5             
iter:  58  13:27:12  -5.9             467.013408  3             
iter:  59  13:27:28  -6.0             472.797882  4             
iter:  60  13:27:45  -6.1             479.034836  5             
iter:  61  13:28:01  -6.1             482.508165  4             
iter:  62  13:28:17  -6.2             486.696424  4             
iter:  63  13:28:34  -6.3             492.505755  4             
iter:  64  13:28:50  -6.4             497.027809  4             
iter:  65  13:29:06  -6.5             501.543107  5             
iter:  66  13:29:23  -6.5             506.365518  6             
iter:  67  13:29:39  -6.6             510.219735  6             
iter:  68  13:29:55  -6.7             514.998430  5             
iter:  69  13:30:12  -6.8             519.041557  4             
iter:  70  13:30:28  -6.9             523.218805  5             
iter:  71  13:30:44  -6.9             527.220516  6             
iter:  72  13:31:01  -7.0             530.208474  6             
iter:  73  13:31:17  -7.1             535.358846  6             
iter:  74  13:31:33  -7.2             537.388957  4             
iter:  75  13:31:50  -7.2             541.853751  6             
iter:  76  13:32:06  -7.3             545.928048  6             
iter:  77  13:32:22  -7.4             551.313699  5             
iter:  78  13:32:39  -7.5             554.481970  4             
iter:  79  13:32:55  -7.5             559.129831  4             
iter:  80  13:33:11  -7.6             563.956267  5             
iter:  81  13:33:28  -7.7             569.045637  5             
iter:  82  13:33:44  -7.8             573.724125  7             
iter:  83  13:34:00  -7.8             578.057259  6             
iter:  84  13:34:17  -7.9             581.240110  5             
iter:  85  13:34:33  -8.0             585.438106  6             
iter:  86  13:34:50  -8.1             589.494604  6             
iter:  87  13:35:06  -8.1             593.619534  7             
iter:  88  13:35:22  -8.2             597.595077  5             
iter:  89  13:35:39  -8.3             601.320926  8             
iter:  90  13:35:55  -8.3             605.997610  7             
iter:  91  13:36:11  -8.4             610.658759  8             
iter:  92  13:36:28  -8.5             613.558416  6             
iter:  93  13:36:44  -8.5             618.151623  5             
iter:  94  13:37:00  -8.6             621.478596  7             
iter:  95  13:37:17  -8.7             626.392338  7             
iter:  96  13:37:33  -8.7             631.775881  7             
iter:  97  13:37:49  -8.8             635.514040  7             
iter:  98  13:38:06  -8.9             640.285648  7             
iter:  99  13:38:22  -8.9             645.227270  9             
iter: 100  13:38:38  -9.0             650.626904  6             
iter: 101  13:38:55  -9.0             655.976481  7             
iter: 102  13:39:11  -9.1             660.771330  7             
iter: 103  13:39:27  -9.2             665.336767  5             
iter: 104  13:39:44  -9.2             670.719721  6             
iter: 105  13:40:00  -9.3             675.689137  6             
iter: 106  13:40:16  -9.3             680.328994  4             
iter: 107  13:40:33  -9.4             685.932485  11            
iter: 108  13:40:49  -9.4             690.251124  4             
iter: 109  13:41:06  -9.5             696.154522  7             
iter: 110  13:41:22  -9.5             701.906507  6             
iter: 111  13:41:38  -9.6             707.180000  6             
iter: 112  13:41:55  -9.6             712.425557  10            
iter: 113  13:42:11  -9.7             718.419259  6             
iter: 114  13:42:27  -9.7             724.254042  5             
iter: 115  13:42:44  -9.8             729.612158  6             
iter: 116  13:43:00  -9.8             735.059798  6             
iter: 117  13:43:16  -9.9             740.615191  7             
iter: 118  13:43:33  -9.9             747.000500  7             
iter: 119  13:43:49  -10.0            752.438782  3             
iter: 120  13:44:05  -10.0            758.297451  8             
iter: 121  13:44:22  -10.1            764.549348  7             
iter: 122  13:44:38  -10.1            770.593399  6             
iter: 123  13:44:54  -10.2            776.914137  9             
iter: 124  13:45:11  -10.2            783.972686  9             
iter: 125  13:45:27  -10.3            790.309091  10            
iter: 126  13:45:43  -10.3            796.721972  5             
iter: 127  13:46:00  -10.3            803.130082  6             
iter: 128  13:46:16  -10.4            809.970531  4             
iter: 129  13:46:32  -10.4            816.633624  6             
iter: 130  13:46:49  -10.5            823.571545  7             
iter: 131  13:47:05  -10.5            830.051518  8             
iter: 132  13:47:21  -10.6            835.943679  7             
iter: 133  13:47:38  -10.6            842.997324  6             
iter: 134  13:47:54  -10.6            849.514783  7             
iter: 135  13:48:10  -10.7            855.805503  8             
iter: 136  13:48:27  -10.7            862.556359  8             
iter: 137  13:48:43  -10.8            869.082288  7             
iter: 138  13:49:00  -10.8            876.055170  9             
iter: 139  13:49:16  -10.8            881.841887  7             
iter: 140  13:49:32  -10.9            888.190264  8             
iter: 141  13:49:49  -10.9            895.279321  8             
iter: 142  13:50:05  -11.0            901.600498  8             
iter: 143  13:50:21  -11.0            907.595225  9             
iter: 144  13:50:38  -11.0            914.737769  8             
iter: 145  13:50:54  -11.1            921.275338  8             
iter: 146  13:51:10  -11.1            927.851436  6             
iter: 147  13:51:27  -11.2            934.512092  7             
iter: 148  13:51:43  -11.2            940.807195  7             
iter: 149  13:51:59  -11.2            947.524866  7             
iter: 150  13:52:16  -11.3            954.403503  8             
Memory usage: 214.27 MB

============================================================
Timing:                               incl.     excl.
============================================================
Initialization:                      27.357     1.290   0.1% |
 Hamiltonian:                         1.058     0.084   0.0% |
  Atomic:                             0.830     0.001   0.0% |
   XC Correction:                     0.829     0.829   0.0% |
  Communicate energies:               0.000     0.000   0.0% |
  Initialize Hamiltonian:             0.000     0.000   0.0% |
  Poisson:                            0.001     0.001   0.0% |
  XC 3D grid:                         0.143     0.143   0.0% |
 LCAO initialization:                24.795     0.884   0.0% |
  LCAO eigensolver:                   3.248     0.007   0.0% |
   Atomic Hamiltonian:                0.120     0.120   0.0% |
   Calculate projections:             0.047     0.047   0.0% |
   Distribute overlap matrix:         0.006     0.006   0.0% |
   Orbital Layouts:                   0.512     0.512   0.0% |
   Potential matrix:                  1.150     1.150   0.0% |
   Sum over cells:                    1.407     1.407   0.1% |
  LCAO to grid:                      13.790    13.790   0.6% |
  Set positions (LCAO WFS):           6.872     0.001   0.0% |
   Basic WFS set positions:           0.000     0.000   0.0% |
   Basis functions set positions:     0.000     0.000   0.0% |
   TCI: Calculate S, T, P:            6.871     6.871   0.3% |
 PWDescriptor:                        0.213     0.213   0.0% |
 Redistribute:                        0.000     0.000   0.0% |
PWDescriptor:                         2.154     2.154   0.1% |
Read:                                 0.003     0.000   0.0% |
 Density:                             0.001     0.001   0.0% |
 Hamiltonian:                         0.002     0.002   0.0% |
SCF-cycle:                         2453.334     4.950   0.2% |
 Orthonormalize:                    217.643     0.364   0.0% |
  Band Layouts:                       1.755     0.068   0.0% |
   Inverse Cholesky:                  1.687     1.687   0.1% |
  calc_s_matrix:                     43.142    43.142   1.7% ||
  projections:                      119.214   119.214   4.8% |-|
  rotate_psi:                        53.167    53.167   2.1% ||
 RMM-DIIS:                         1639.133  1034.871  41.5% |----------------|
  precondition:                     208.919   208.919   8.4% |--|
  projections:                      395.344   395.344  15.9% |-----|
 Subspace diag:                     591.608     0.648   0.0% |
  Band Layouts:                      12.877     0.143   0.0% |
   Diagonalize:                      12.578    12.578   0.5% |
   Distribute results:                0.156     0.156   0.0% |
  calc_h_matrix:                    475.972   475.972  19.1% |-------|
  rotate_psi:                       102.111   102.111   4.1% |-|
Other:                                8.120     8.120   0.3% |
============================================================
Total:                                       2490.968 100.0%
============================================================
date: Sun Mar  1 13:52:16 2015
