
  ___ ___ ___ _ _ _  
 |   |   |_  | | | | 
 | | | | | . | | | | 
 |__ |  _|___|_____|  0.9.1.9737
 |___|_|             

User:  albinka@beda14-3.nfs.private
Date:  Sun Mar  1 15:40:28 2015
Arch:  x86_64
Pid:   2862
Dir:   /beda/sw/apps/GPAW/r9737-py26-i111-mkl102/lib/python2.6/site-packages/gpaw
ase:   /beda/sw/apps/ase/r2828/lib/python2.6/site-packages/ase (version 3.6.1.2828)
numpy: /beda/sw/apps/numpy/py26/1.5.1rc2/mkl10.2/lib/python2.6/site-packages/numpy (version 1.5.1rc2)
units: Angstrom and eV
cores: 1

Memory estimate
---------------
Process memory now: 164.68 MiB
Calculator  901.97 MiB
    Density  6.76 MiB
        Arrays  2.74 MiB
        Localized functions  3.39 MiB
        Mixer  0.63 MiB
    Hamiltonian  1.87 MiB
        Arrays  1.79 MiB
        XC  0.00 MiB
        Poisson  0.00 MiB
        vbar  0.08 MiB
    Wavefunctions  893.34 MiB
        Arrays psit_nG  767.50 MiB
        Eigensolver  1.62 MiB
        Projectors  113.20 MiB
        Overlap op  1.56 MiB
        PW-descriptor  9.46 MiB
    .----------.  
   /|          |  
  / |          |  
 *  |          |  
 |Mg|   S      |  
 |  .----------.  
 S /  Mg      /   
 |/     Mg   /    
 Mg---S-----*     

Unit Cell:
           Periodic     X           Y           Z      Points  Spacing
  --------------------------------------------------------------------
  1. axis:    yes    4.379300    0.000000    0.000000    24     0.1825
  2. axis:    yes    0.000000    4.379300    0.000000    24     0.1825
  3. axis:    yes    0.000000    0.000000    4.379300    24     0.1825

Mg-setup:
  name   : Magnesium
  id     : b56b6cab5149d5bf22ad04c2f71a3023
  Z      : 12
  valence: 10
  core   : 2
  charge : 0.0
  file   : /beda/sw/apps/GPAW/r9737-py26-i111-mkl102/gpaw-setups-0.9.9672/Mg.PBE.gz
  cutoffs: 1.03(comp), 1.86(filt), 0.54(core), lmax=2
  valence states:
            energy   radius
    2s(2)  -79.840   1.090
    3s(2)   -4.705   1.090
    2p(6)  -46.613   1.085
    3p(0)   -1.330   1.085
    *d       0.000   1.037

LCAO basis set for Mg:
  Name: dzp
  Basis set was loaded from file /beda/sw/apps/GPAW/r9737-py26-i111-mkl102/gpaw-setups-0.9.9672/Mg.dzp.basis.gz
  Number of radial functions: 7
  Number of spherical harmonics: 15
    l=0, rc=2.7969 Bohr: 2s-sz confined orbital
    l=0, rc=9.2344 Bohr: 3s-sz confined orbital
    l=1, rc=3.1406 Bohr: 2p-sz confined orbital
    l=0, rc=1.8125 Bohr: 2s-dz split-valence wave
    l=0, rc=5.5156 Bohr: 3s-dz split-valence wave
    l=1, rc=2.0938 Bohr: 2p-dz split-valence wave
    l=2, rc=3.1406 Bohr: d-type Gaussian polarization

S-setup:
  name   : Sulfur
  id     : ca434db9faa07220b7a1d8cb6886b7a9
  Z      : 16
  valence: 6
  core   : 10
  charge : 0.0
  file   : /beda/sw/apps/GPAW/r9737-py26-i111-mkl102/gpaw-setups-0.9.9672/S.PBE.gz
  cutoffs: 0.76(comp), 1.77(filt), 1.66(core), lmax=2
  valence states:
            energy   radius
    3s(2)  -17.254   0.974
    3p(4)   -7.008   0.979
    *s       9.957   0.974
    *p      20.203   0.979
    *d       0.000   0.900

LCAO basis set for S:
  Name: dzp
  Basis set was loaded from file /beda/sw/apps/GPAW/r9737-py26-i111-mkl102/gpaw-setups-0.9.9672/S.dzp.basis.gz
  Number of radial functions: 5
  Number of spherical harmonics: 13
    l=0, rc=5.5156 Bohr: 3s-sz confined orbital
    l=1, rc=6.9375 Bohr: 3p-sz confined orbital
    l=0, rc=3.0469 Bohr: 3s-dz split-valence wave
    l=1, rc=3.9375 Bohr: 3p-dz split-valence wave
    l=2, rc=6.9375 Bohr: d-type Gaussian polarization

Using the PBE Exchange-Correlation Functional.
Spin-Paired Calculation
Total Charge:      0.000000
Fermi Temperature: 0.100000
Wave functions: Plane wave expansion
      Cutoff energy: 400.000 eV
      Number of coefficients (min, max): 1505, 1535
      Using FFTW library
Eigensolver:       cg
XC and Coulomb potentials evaluated on a 48*48*48 grid
Interpolation: FFT
Poisson solver: FFT
Reference Energy:  -65229.082232

Total number of cores used: 1

Symmetries present: 1
512 k-points: 8 x 8 x 8 Monkhorst-Pack grid
512 k-points in the Irreducible Part of the Brillouin Zone
Linear Mixing Parameter:           0.1
Pulay Mixing with 3 Old Densities
Damping of Long Wave Oscillations: 50

Convergence Criteria:
Total Energy Change:           0.0005 eV / electron
Integral of Absolute Density Change:    0.0001 electrons
Integral of Absolute Eigenstate Change: 4e-08 eV^2
Number of Atoms: 8
Number of Atomic Orbitals: 112
Number of Bands in Calculation:         64
Bands to Converge:                      8 Lowest Bands
Number of Valence Electrons:            64

Memory estimate
---------------
Process memory now: 164.70 MiB
Calculator  100.90 MiB
    Density  6.76 MiB
        Arrays  2.74 MiB
        Localized functions  3.39 MiB
        Mixer  0.63 MiB
    Hamiltonian  1.87 MiB
        Arrays  1.79 MiB
        XC  0.00 MiB
        Poisson  0.00 MiB
        vbar  0.08 MiB
    Wavefunctions  92.27 MiB
        Arrays psit_nG  76.56 MiB
        Eigensolver  1.65 MiB
        Projectors  11.06 MiB
        Overlap op  1.59 MiB
        PW-descriptor  1.40 MiB

Positions:
  0 Mg    0.0000    0.0000    0.0000
  1 Mg    2.1896    2.1896    0.0000
  2 Mg    2.1896    0.0000    2.1896
  3 Mg    0.0000    2.1896    2.1896
  4 S     2.1896    0.0000    0.0000
  5 S     4.3793    0.0000    2.1896
  6 S     2.1896    2.1896    2.1896
  7 S     4.3793    2.1896    0.0000

    .----------.  
   /|          |  
  / |          |  
 *  |          |  
 |Mg|   S      |  
 |  .----------.  
 S /  Mg      /   
 |/     Mg   /    
 Mg---S-----*     

Unit Cell:
           Periodic     X           Y           Z      Points  Spacing
  --------------------------------------------------------------------
  1. axis:    yes    4.379300    0.000000    0.000000    24     0.1825
  2. axis:    yes    0.000000    4.379300    0.000000    24     0.1825
  3. axis:    yes    0.000000    0.000000    4.379300    24     0.1825

Mg-setup:
  name   : Magnesium
  id     : b56b6cab5149d5bf22ad04c2f71a3023
  Z      : 12
  valence: 10
  core   : 2
  charge : 0.0
  file   : /beda/sw/apps/GPAW/r9737-py26-i111-mkl102/gpaw-setups-0.9.9672/Mg.PBE.gz
  cutoffs: 1.03(comp), 1.86(filt), 0.54(core), lmax=2
  valence states:
            energy   radius
    2s(2)  -79.840   1.090
    3s(2)   -4.705   1.090
    2p(6)  -46.613   1.085
    3p(0)   -1.330   1.085
    *d       0.000   1.037

LCAO basis set for Mg:
  Name: dzp
  Basis set was loaded from file /beda/sw/apps/GPAW/r9737-py26-i111-mkl102/gpaw-setups-0.9.9672/Mg.dzp.basis.gz
  Number of radial functions: 7
  Number of spherical harmonics: 15
    l=0, rc=2.7969 Bohr: 2s-sz confined orbital
    l=0, rc=9.2344 Bohr: 3s-sz confined orbital
    l=1, rc=3.1406 Bohr: 2p-sz confined orbital
    l=0, rc=1.8125 Bohr: 2s-dz split-valence wave
    l=0, rc=5.5156 Bohr: 3s-dz split-valence wave
    l=1, rc=2.0938 Bohr: 2p-dz split-valence wave
    l=2, rc=3.1406 Bohr: d-type Gaussian polarization

S-setup:
  name   : Sulfur
  id     : ca434db9faa07220b7a1d8cb6886b7a9
  Z      : 16
  valence: 6
  core   : 10
  charge : 0.0
  file   : /beda/sw/apps/GPAW/r9737-py26-i111-mkl102/gpaw-setups-0.9.9672/S.PBE.gz
  cutoffs: 0.76(comp), 1.77(filt), 1.66(core), lmax=2
  valence states:
            energy   radius
    3s(2)  -17.254   0.974
    3p(4)   -7.008   0.979
    *s       9.957   0.974
    *p      20.203   0.979
    *d       0.000   0.900

LCAO basis set for S:
  Name: dzp
  Basis set was loaded from file /beda/sw/apps/GPAW/r9737-py26-i111-mkl102/gpaw-setups-0.9.9672/S.dzp.basis.gz
  Number of radial functions: 5
  Number of spherical harmonics: 13
    l=0, rc=5.5156 Bohr: 3s-sz confined orbital
    l=1, rc=6.9375 Bohr: 3p-sz confined orbital
    l=0, rc=3.0469 Bohr: 3s-dz split-valence wave
    l=1, rc=3.9375 Bohr: 3p-dz split-valence wave
    l=2, rc=6.9375 Bohr: d-type Gaussian polarization

Using the PBE Exchange-Correlation Functional.
Spin-Paired Calculation
Total Charge:      0.000000
Fermi Temperature: 0.100000
Wave functions: Plane wave expansion
      Cutoff energy: 400.000 eV
      Number of coefficients (min, max): 1504, 1568
      Using FFTW library
Eigensolver:       cg
XC and Coulomb potentials evaluated on a 48*48*48 grid
Interpolation: FFT
Poisson solver: FFT
Reference Energy:  -65229.082232

Total number of cores used: 1

Symmetries present: 1
50 k-points
50 k-points in the Irreducible Part of the Brillouin Zone
Linear Mixing Parameter:           0.1
Pulay Mixing with 3 Old Densities
Damping of Long Wave Oscillations: 50

Convergence Criteria:
Total Energy Change:           0.0005 eV / electron
Integral of Absolute Density Change:    0.0001 electrons
Integral of Absolute Eigenstate Change: 4e-08 eV^2
Number of Atoms: 8
Number of Atomic Orbitals: 112
Number of Bands in Calculation:         64
Bands to Converge:                      8 Lowest Bands
Number of Valence Electrons:            64
                     log10-error:    Total        Iterations:
           Time      WFS    Density  Energy       Fermi  Poisson
iter:   1  15:42:38  -0.1             -17.614670  4             
iter:   2  15:44:16  -0.9             -17.891209  5             
iter:   3  15:45:57  -1.7             -17.917129  2             
iter:   4  15:47:41  -2.3             -17.921135  1             
iter:   5  15:49:23  -3.0             -17.921920  1             
iter:   6  15:51:08  -3.6             -17.922054  1             
iter:   7  15:52:54  -4.2             -17.922090  1             
iter:   8  15:54:38  -4.7             -17.922098  1             
iter:   9  15:56:21  -5.3             -17.922101  1             
iter:  10  15:58:05  -5.8             -17.922102  0             
iter:  11  15:59:47  -6.2             -17.922102  0             
iter:  12  16:01:25  -6.6             -17.922103  0             
iter:  13  16:02:59  -6.9             -17.922103  0             
iter:  14  16:04:27  -7.3             -17.922103  0             
iter:  15  16:05:43  -7.6             -17.922103  0             
------------------------------------
Converged After 15 Iterations.

Energy Contributions Relative to Reference Atoms:(reference = -65229.082232)
-------------------------
Kinetic:       +231.677882
Potential:     -172.839199
External:        +0.000000
XC:             -76.290834
Entropy (-ST):   -0.000096
Local:           -0.469903
-------------------------
Free Energy:    -17.922151
Zero Kelvin:    -17.922103

Fermi Level: 12.37206


Memory usage: 216.89 MB

============================================================
Timing:                               incl.     excl.
============================================================
Initialization:                      27.620     1.320   0.1% |
 Hamiltonian:                         1.070     0.085   0.0% |
  Atomic:                             0.840     0.001   0.0% |
   XC Correction:                     0.839     0.839   0.1% |
  Communicate energies:               0.000     0.000   0.0% |
  Initialize Hamiltonian:             0.000     0.000   0.0% |
  Poisson:                            0.001     0.001   0.0% |
  XC 3D grid:                         0.144     0.144   0.0% |
 LCAO initialization:                25.018     0.886   0.1% |
  LCAO eigensolver:                   3.255     0.006   0.0% |
   Atomic Hamiltonian:                0.119     0.119   0.0% |
   Calculate projections:             0.047     0.047   0.0% |
   Distribute overlap matrix:         0.006     0.006   0.0% |
   Orbital Layouts:                   0.510     0.510   0.0% |
   Potential matrix:                  1.154     1.154   0.1% |
   Sum over cells:                    1.412     1.412   0.1% |
  LCAO to grid:                      13.872    13.872   0.9% |
  Set positions (LCAO WFS):           7.005     0.001   0.0% |
   Basic WFS set positions:           0.000     0.000   0.0% |
   Basis functions set positions:     0.000     0.000   0.0% |
   TCI: Calculate S, T, P:            7.003     7.003   0.5% |
 PWDescriptor:                        0.212     0.212   0.0% |
 Redistribute:                        0.000     0.000   0.0% |
PWDescriptor:                         2.160     2.160   0.1% |
Read:                                 0.003     0.000   0.0% |
 Density:                             0.001     0.001   0.0% |
 Hamiltonian:                         0.002     0.002   0.0% |
SCF-cycle:                         1476.589     0.383   0.0% |
 CG:                               1381.588  1313.531  86.7% |----------------------------------|
  CG: orthonormalize:                68.057    32.487   2.1% ||
   CG: overlap:                      23.085    23.085   1.5% ||
   CG: overlap2:                     12.485    12.485   0.8% |
 Orthonormalize:                     23.089     0.035   0.0% |
  Band Layouts:                       0.177     0.006   0.0% |
   Inverse Cholesky:                  0.170     0.170   0.0% |
  calc_s_matrix:                      4.569     4.569   0.3% |
  projections:                       12.668    12.668   0.8% |
  rotate_psi:                         5.641     5.641   0.4% |
 Residuals:                          12.703    12.703   0.8% |
 Subspace diag:                      58.827     0.061   0.0% |
  Band Layouts:                       1.282     0.013   0.0% |
   Diagonalize:                       1.254     1.254   0.1% |
   Distribute results:                0.014     0.014   0.0% |
  calc_h_matrix:                     47.283    47.283   3.1% ||
  rotate_psi:                        10.201    10.201   0.7% |
Other:                                8.659     8.659   0.6% |
============================================================
Total:                                       1515.032 100.0%
============================================================
date: Sun Mar  1 16:05:43 2015
